# vtk DataFile Version 1.0
Cube
ASCII

DATASET POLYDATA
POINTS 8 float
4.560000 0.000000 0.000000
4.560000 0.000000 300.000000
4.560000 300.000000 0.000000
4.560000 300.000000 300.000000
304.560000 0.000000 0.000000
304.560000 0.000000 300.000000
304.560000 300.000000 0.000000
304.560000 300.000000 300.000000
LINES 0 0
POINT_DATA 8
SCALARS my_scalars float
LOOKUP_TABLE default
0
0
0
0
0
0
0
0
VECTORS vectors float
0.25 0 0
0.25 0 0
0.25 0 0
0.25 0 0
0.25 0 0
0.25 0 0
0.25 0 0
0.25 0 0
