# vtk DataFile Version 1.0
Cube
ASCII

DATASET POLYDATA
POINTS 64 float
0.000000 0.000000 0.000000
0.000000 0.000000 300.000000
0.000000 300.000000 0.000000
0.000000 300.000000 300.000000
300.000000 0.000000 0.000000
300.000000 0.000000 300.000000
300.000000 300.000000 0.000000
300.000000 300.000000 300.000000
0.000000 0.000000 100.000000
0.000000 300.000000 100.000000
300.000000 0.000000 100.000000
300.000000 300.000000 100.000000
0.000000 0.000000 200.000000
0.000000 300.000000 200.000000
300.000000 0.000000 200.000000
300.000000 300.000000 200.000000
0.000000 100.000000 0.000000
0.000000 100.000000 300.000000
300.000000 100.000000 0.000000
300.000000 100.000000 300.000000
0.000000 100.000000 100.000000
300.000000 100.000000 100.000000
0.000000 100.000000 200.000000
300.000000 100.000000 200.000000
0.000000 200.000000 0.000000
0.000000 200.000000 300.000000
300.000000 200.000000 0.000000
300.000000 200.000000 300.000000
0.000000 200.000000 100.000000
300.000000 200.000000 100.000000
0.000000 200.000000 200.000000
300.000000 200.000000 200.000000
100.000000 0.000000 0.000000
100.000000 0.000000 300.000000
100.000000 300.000000 0.000000
100.000000 300.000000 300.000000
100.000000 0.000000 100.000000
100.000000 300.000000 100.000000
100.000000 0.000000 200.000000
100.000000 300.000000 200.000000
100.000000 100.000000 0.000000
100.000000 100.000000 300.000000
100.000000 100.000000 100.000000
100.000000 100.000000 200.000000
100.000000 200.000000 0.000000
100.000000 200.000000 300.000000
100.000000 200.000000 100.000000
100.000000 200.000000 200.000000
200.000000 0.000000 0.000000
200.000000 0.000000 300.000000
200.000000 300.000000 0.000000
200.000000 300.000000 300.000000
200.000000 0.000000 100.000000
200.000000 300.000000 100.000000
200.000000 0.000000 200.000000
200.000000 300.000000 200.000000
200.000000 100.000000 0.000000
200.000000 100.000000 300.000000
200.000000 100.000000 100.000000
200.000000 100.000000 200.000000
200.000000 200.000000 0.000000
200.000000 200.000000 300.000000
200.000000 200.000000 100.000000
200.000000 200.000000 200.000000
POINT_DATA 64
SCALARS my_scalars float
LOOKUP_TABLE default
1.7
1.7
1.7
1.7
1.7
1.7
1.7
1.7
1.7
1.7
1.7
1.7
1.7
1.7
1.7
1.7
1.7
1.7
1.7
1.7
1.7
1.7
1.7
1.7
1.7
1.7
1.7
1.7
1.7
1.7
1.7
1.7
1.7
1.7
1.7
1.7
1.7
1.7
1.7
1.7
1.7
1.7
1.7
1.7
1.7
1.7
1.7
1.7
1.7
1.7
1.7
1.7
1.7
1.7
1.7
1.7
1.7
1.7
1.7
1.7
1.7
1.7
1.7
1.7
VECTORS vectors float
0.3125 0 0
0.3125 0 0
0.3125 0 0
0.3125 0 0
0.3125 0 0
0.3125 0 0
0.3125 0 0
0.3125 0 0
0.3125 0 0
0.3125 0 0
0.3125 0 0
0.3125 0 0
0.3125 0 0
0.3125 0 0
0.3125 0 0
0.3125 0 0
0.3125 0 0
0.3125 0 0
0.3125 0 0
0.3125 0 0
0.3125 0 0
0.3125 0 0
0.3125 0 0
0.3125 0 0
0.3125 0 0
0.3125 0 0
0.3125 0 0
0.3125 0 0
0.3125 0 0
0.3125 0 0
0.3125 0 0
0.3125 0 0
0.3125 0 0
0.3125 0 0
0.3125 0 0
0.3125 0 0
0.3125 0 0
0.3125 0 0
0.3125 0 0
0.3125 0 0
0.3125 0 0
0.3125 0 0
0.3125 0 0
0.3125 0 0
0.3125 0 0
0.3125 0 0
0.3125 0 0
0.3125 0 0
0.3125 0 0
0.3125 0 0
0.3125 0 0
0.3125 0 0
0.3125 0 0
0.3125 0 0
0.3125 0 0
0.3125 0 0
0.3125 0 0
0.3125 0 0
0.3125 0 0
0.3125 0 0
0.3125 0 0
0.3125 0 0
0.3125 0 0
0.3125 0 0
